 Gaussian 16, Revision C.01,
 Gaussian 16:  ES64L-G16RevC.01  3-Jul-2019

 ------------------------------------
 # MP2/aug-cc-pvtz SCF=(Tight,Direct)
 ------------------------------------

 ------------------------------------
 Molecule Density and ESP Calculation
 ------------------------------------
 Symbolic Z-matrix:
 Charge =  0 Multiplicity = 1

                         Standard orientation:
 ---------------------------------------------------------------------
 Center     Atomic      Atomic             Coordinates (Angstroms)
 Number     Number       Type             X           Y           Z
 ---------------------------------------------------------------------
      1          6           0       -1.365003   -0.330077   -0.008855
      2          6           0        0.044394    0.118516   -0.000971
      3          7           0        1.038131   -0.797197   -0.025444
      4          1           0        0.882756   -1.736627    0.233333
      5          1           0        1.988210   -0.503976   -0.115911
      6          8           0        0.362118    1.296971    0.025370
      7          1           0       -1.793710   -0.315568    1.021601
      8          1           0       -1.851475    0.393756   -0.716729
      9          1           0       -1.465986   -1.363604   -0.388186
 ---------------------------------------------------------------------

 SCF Done:  E(RHF) =  -208.056026222     A.U. after   12 cycles
 E2 =    -0.7907734886D+00 EUMP2 =    -0.20884679971089D+03

 The electronic state is 1-A.
 Alpha  occ. eigenvalues --  -20.51037 -15.57995 -11.34821 -11.24791  -1.37973
 Alpha  occ. eigenvalues --   -1.21195  -1.01161  -0.80132  -0.72552  -0.66858
 Alpha  occ. eigenvalues --   -0.62185  -0.58197  -0.55411  -0.52253  -0.42547
 Alpha  occ. eigenvalues --   -0.40985
 Alpha virt. eigenvalues --    0.02200   0.03646   0.04424   0.04638   0.06247
 Alpha virt. eigenvalues --    0.08430   0.10320   0.10676   0.11510   0.12642
 Alpha virt. eigenvalues --    0.13230   0.13959   0.14812   0.15195   0.16591

 Mulliken charges:
               1
     1  C   -0.581849
     2  C    0.478886
     3  N   -0.316047
     4  H    0.116237
     5  H    0.158578
     6  O   -0.733534
     7  H    0.292428
     8  H    0.299806
     9  H    0.285495
 Sum of Mulliken charges =  -0.00000

 Dipole moment (field-independent basis, Debye):
    X=             -0.4398    Y=             -4.1454    Z=              0.2122  Tot=              4.1741
 Quadrupole moment (field-independent basis, Debye-Ang):
   XX=            -20.4338   YY=            -27.1760   ZZ=            -24.8005
   XY=             -2.2551   XZ=             -0.0907   YZ=             -1.1259

 Normal termination of Gaussian 16 at Tue Nov  5 11:01:01 2024.
